Program Version,EnergyPlus, Version 9.0.1-bb7ca4f0da, YMD=2022.10.14 21:18
1,5,Environment Title[],Latitude[deg],Longitude[deg],Time Zone[],Elevation[m]
2,8,Day of Simulation[],Month[],Day of Month[],DST Indicator[1=yes 0=no],Hour[],StartMinute[],EndMinute[],DayType
3,5,Cumulative Day of Simulation[],Month[],Day of Month[],DST Indicator[1=yes 0=no],DayType  ! When Daily Report Variables Requested
4,2,Cumulative Days of Simulation[],Month[]  ! When Monthly Report Variables Requested
5,1,Cumulative Days of Simulation[] ! When Run Period Report Variables Requested
6,1,Calendar Year of Simulation[] ! When Annual Report Variables Requested
497,1,PAV1_Z1,Zone Mean Radiant Temperature [C] !Hourly
498,1,PAV1_ZLAT2,Zone Mean Radiant Temperature [C] !Hourly
499,1,PAV1_ZLAT1,Zone Mean Radiant Temperature [C] !Hourly
500,1,PAV2_ZLAT1,Zone Mean Radiant Temperature [C] !Hourly
501,1,PAV2_Z1,Zone Mean Radiant Temperature [C] !Hourly
502,1,PAV2_ZLAT2,Zone Mean Radiant Temperature [C] !Hourly
503,1,PAV3_ZLAT1,Zone Mean Radiant Temperature [C] !Hourly
504,1,PAV3_Z1,Zone Mean Radiant Temperature [C] !Hourly
505,1,PAV3_ZLAT2,Zone Mean Radiant Temperature [C] !Hourly
506,1,PAV4_ZLAT1,Zone Mean Radiant Temperature [C] !Hourly
507,1,PAV4_Z1,Zone Mean Radiant Temperature [C] !Hourly
508,1,PAV4_ZLAT2,Zone Mean Radiant Temperature [C] !Hourly
509,1,PAV5_ZLAT1,Zone Mean Radiant Temperature [C] !Hourly
510,1,PAV5_Z1,Zone Mean Radiant Temperature [C] !Hourly
511,1,PAV5_ZLAT2,Zone Mean Radiant Temperature [C] !Hourly
512,1,PAV6_ZLAT1,Zone Mean Radiant Temperature [C] !Hourly
513,1,PAV6_Z1,Zone Mean Radiant Temperature [C] !Hourly
514,1,PAV6_ZLAT2,Zone Mean Radiant Temperature [C] !Hourly
515,1,PAV7_ZLAT1,Zone Mean Radiant Temperature [C] !Hourly
516,1,PAV7_Z1,Zone Mean Radiant Temperature [C] !Hourly
517,1,PAV7_ZLAT2,Zone Mean Radiant Temperature [C] !Hourly
518,1,PAV8_ZLAT1,Zone Mean Radiant Temperature [C] !Hourly
519,1,PAV8_Z1,Zone Mean Radiant Temperature [C] !Hourly
520,1,PAV8_ZLAT2,Zone Mean Radiant Temperature [C] !Hourly
521,1,PAV9_ZLAT2,Zone Mean Radiant Temperature [C] !Hourly
522,1,PAV9_Z1,Zone Mean Radiant Temperature [C] !Hourly
523,1,PAV9_ZLAT1,Zone Mean Radiant Temperature [C] !Hourly
524,1,PAV10_ZLAT1,Zone Mean Radiant Temperature [C] !Hourly
525,1,PAV10_Z1,Zone Mean Radiant Temperature [C] !Hourly
526,1,PAV10_ZLAT2,Zone Mean Radiant Temperature [C] !Hourly
527,1,PAV11_ZLAT1,Zone Mean Radiant Temperature [C] !Hourly
528,1,PAV11_Z1,Zone Mean Radiant Temperature [C] !Hourly
529,1,PAV11_ZLAT2,Zone Mean Radiant Temperature [C] !Hourly
530,1,PAV2_FD,Zone Mean Radiant Temperature [C] !Hourly
531,1,PAV3_FD,Zone Mean Radiant Temperature [C] !Hourly
532,1,PAV4_FD,Zone Mean Radiant Temperature [C] !Hourly
533,1,PAV5_FD,Zone Mean Radiant Temperature [C] !Hourly
534,1,PAV6_FD,Zone Mean Radiant Temperature [C] !Hourly
535,1,PAV7_FD,Zone Mean Radiant Temperature [C] !Hourly
536,1,PAV8_FD,Zone Mean Radiant Temperature [C] !Hourly
537,1,PAV9_FD,Zone Mean Radiant Temperature [C] !Hourly
538,1,PAV10_FD,Zone Mean Radiant Temperature [C] !Hourly
539,1,PAV11_FD,Zone Mean Radiant Temperature [C] !Hourly
540,1,PAV12_FD,Zone Mean Radiant Temperature [C] !Hourly
541,1,PAV1_Z1,Zone Mean Air Temperature [C] !Hourly
542,1,PAV1_ZLAT2,Zone Mean Air Temperature [C] !Hourly
543,1,PAV1_ZLAT1,Zone Mean Air Temperature [C] !Hourly
544,1,PAV2_ZLAT1,Zone Mean Air Temperature [C] !Hourly
545,1,PAV2_Z1,Zone Mean Air Temperature [C] !Hourly
546,1,PAV2_ZLAT2,Zone Mean Air Temperature [C] !Hourly
547,1,PAV3_ZLAT1,Zone Mean Air Temperature [C] !Hourly
548,1,PAV3_Z1,Zone Mean Air Temperature [C] !Hourly
549,1,PAV3_ZLAT2,Zone Mean Air Temperature [C] !Hourly
550,1,PAV4_ZLAT1,Zone Mean Air Temperature [C] !Hourly
551,1,PAV4_Z1,Zone Mean Air Temperature [C] !Hourly
552,1,PAV4_ZLAT2,Zone Mean Air Temperature [C] !Hourly
553,1,PAV5_ZLAT1,Zone Mean Air Temperature [C] !Hourly
554,1,PAV5_Z1,Zone Mean Air Temperature [C] !Hourly
555,1,PAV5_ZLAT2,Zone Mean Air Temperature [C] !Hourly
556,1,PAV6_ZLAT1,Zone Mean Air Temperature [C] !Hourly
557,1,PAV6_Z1,Zone Mean Air Temperature [C] !Hourly
558,1,PAV6_ZLAT2,Zone Mean Air Temperature [C] !Hourly
559,1,PAV7_ZLAT1,Zone Mean Air Temperature [C] !Hourly
560,1,PAV7_Z1,Zone Mean Air Temperature [C] !Hourly
561,1,PAV7_ZLAT2,Zone Mean Air Temperature [C] !Hourly
562,1,PAV8_ZLAT1,Zone Mean Air Temperature [C] !Hourly
563,1,PAV8_Z1,Zone Mean Air Temperature [C] !Hourly
564,1,PAV8_ZLAT2,Zone Mean Air Temperature [C] !Hourly
565,1,PAV9_ZLAT2,Zone Mean Air Temperature [C] !Hourly
566,1,PAV9_Z1,Zone Mean Air Temperature [C] !Hourly
567,1,PAV9_ZLAT1,Zone Mean Air Temperature [C] !Hourly
568,1,PAV10_ZLAT1,Zone Mean Air Temperature [C] !Hourly
569,1,PAV10_Z1,Zone Mean Air Temperature [C] !Hourly
570,1,PAV10_ZLAT2,Zone Mean Air Temperature [C] !Hourly
571,1,PAV11_ZLAT1,Zone Mean Air Temperature [C] !Hourly
572,1,PAV11_Z1,Zone Mean Air Temperature [C] !Hourly
573,1,PAV11_ZLAT2,Zone Mean Air Temperature [C] !Hourly
574,1,PAV2_FD,Zone Mean Air Temperature [C] !Hourly
575,1,PAV3_FD,Zone Mean Air Temperature [C] !Hourly
576,1,PAV4_FD,Zone Mean Air Temperature [C] !Hourly
577,1,PAV5_FD,Zone Mean Air Temperature [C] !Hourly
578,1,PAV6_FD,Zone Mean Air Temperature [C] !Hourly
579,1,PAV7_FD,Zone Mean Air Temperature [C] !Hourly
580,1,PAV8_FD,Zone Mean Air Temperature [C] !Hourly
581,1,PAV9_FD,Zone Mean Air Temperature [C] !Hourly
582,1,PAV10_FD,Zone Mean Air Temperature [C] !Hourly
583,1,PAV11_FD,Zone Mean Air Temperature [C] !Hourly
584,1,PAV12_FD,Zone Mean Air Temperature [C] !Hourly
585,1,PAV11_FD_PISO_J1_ABERTA,AFN Linkage Node 1 to Node 2 Volume Flow Rate [m3/s] !Hourly
586,1,PAV11_FD_PISO_J1_ABERTA,AFN Linkage Node 2 to Node 1 Volume Flow Rate [m3/s] !Hourly
587,1,PAV11_FD_TETO_ABERTA,AFN Linkage Node 1 to Node 2 Volume Flow Rate [m3/s] !Hourly
588,1,PAV11_FD_TETO_ABERTA,AFN Linkage Node 2 to Node 1 Volume Flow Rate [m3/s] !Hourly
589,1,PAV10_FD_PISO_J1_ABERTA,AFN Linkage Node 1 to Node 2 Volume Flow Rate [m3/s] !Hourly
590,1,PAV10_FD_PISO_J1_ABERTA,AFN Linkage Node 2 to Node 1 Volume Flow Rate [m3/s] !Hourly
591,1,PAV10_FD_TETO_ABERTA,AFN Linkage Node 1 to Node 2 Volume Flow Rate [m3/s] !Hourly
592,1,PAV10_FD_TETO_ABERTA,AFN Linkage Node 2 to Node 1 Volume Flow Rate [m3/s] !Hourly
593,1,PAV9_FD_PISO_J1_ABERTA,AFN Linkage Node 1 to Node 2 Volume Flow Rate [m3/s] !Hourly
594,1,PAV9_FD_PISO_J1_ABERTA,AFN Linkage Node 2 to Node 1 Volume Flow Rate [m3/s] !Hourly
595,1,PAV9_FD_TETO_ABERTA,AFN Linkage Node 1 to Node 2 Volume Flow Rate [m3/s] !Hourly
596,1,PAV9_FD_TETO_ABERTA,AFN Linkage Node 2 to Node 1 Volume Flow Rate [m3/s] !Hourly
597,1,PAV8_FD_PISO_J1_ABERTA,AFN Linkage Node 1 to Node 2 Volume Flow Rate [m3/s] !Hourly
598,1,PAV8_FD_PISO_J1_ABERTA,AFN Linkage Node 2 to Node 1 Volume Flow Rate [m3/s] !Hourly
599,1,PAV8_FD_TETO_ABERTA,AFN Linkage Node 1 to Node 2 Volume Flow Rate [m3/s] !Hourly
600,1,PAV8_FD_TETO_ABERTA,AFN Linkage Node 2 to Node 1 Volume Flow Rate [m3/s] !Hourly
601,1,PAV7_FD_PISO_J1_ABERTA,AFN Linkage Node 1 to Node 2 Volume Flow Rate [m3/s] !Hourly
602,1,PAV7_FD_PISO_J1_ABERTA,AFN Linkage Node 2 to Node 1 Volume Flow Rate [m3/s] !Hourly
603,1,PAV7_FD_TETO_ABERTA,AFN Linkage Node 1 to Node 2 Volume Flow Rate [m3/s] !Hourly
604,1,PAV7_FD_TETO_ABERTA,AFN Linkage Node 2 to Node 1 Volume Flow Rate [m3/s] !Hourly
605,1,PAV6_FD_PISO_J1_ABERTA,AFN Linkage Node 1 to Node 2 Volume Flow Rate [m3/s] !Hourly
606,1,PAV6_FD_PISO_J1_ABERTA,AFN Linkage Node 2 to Node 1 Volume Flow Rate [m3/s] !Hourly
607,1,PAV6_FD_TETO_ABERTA,AFN Linkage Node 1 to Node 2 Volume Flow Rate [m3/s] !Hourly
608,1,PAV6_FD_TETO_ABERTA,AFN Linkage Node 2 to Node 1 Volume Flow Rate [m3/s] !Hourly
609,1,PAV5_FD_PISO_J1_ABERTA,AFN Linkage Node 1 to Node 2 Volume Flow Rate [m3/s] !Hourly
610,1,PAV5_FD_PISO_J1_ABERTA,AFN Linkage Node 2 to Node 1 Volume Flow Rate [m3/s] !Hourly
611,1,PAV5_FD_TETO_ABERTA,AFN Linkage Node 1 to Node 2 Volume Flow Rate [m3/s] !Hourly
612,1,PAV5_FD_TETO_ABERTA,AFN Linkage Node 2 to Node 1 Volume Flow Rate [m3/s] !Hourly
613,1,PAV4_FD_PISO_J1_ABERTA,AFN Linkage Node 1 to Node 2 Volume Flow Rate [m3/s] !Hourly
614,1,PAV4_FD_PISO_J1_ABERTA,AFN Linkage Node 2 to Node 1 Volume Flow Rate [m3/s] !Hourly
615,1,PAV4_FD_TETO_ABERTA,AFN Linkage Node 1 to Node 2 Volume Flow Rate [m3/s] !Hourly
616,1,PAV4_FD_TETO_ABERTA,AFN Linkage Node 2 to Node 1 Volume Flow Rate [m3/s] !Hourly
617,1,PAV3_FD_PISO_J1_ABERTA,AFN Linkage Node 1 to Node 2 Volume Flow Rate [m3/s] !Hourly
618,1,PAV3_FD_PISO_J1_ABERTA,AFN Linkage Node 2 to Node 1 Volume Flow Rate [m3/s] !Hourly
619,1,PAV3_FD_TETO_ABERTA,AFN Linkage Node 1 to Node 2 Volume Flow Rate [m3/s] !Hourly
620,1,PAV3_FD_TETO_ABERTA,AFN Linkage Node 2 to Node 1 Volume Flow Rate [m3/s] !Hourly
621,1,PAV2_FD_PISO_J1_ABERTA,AFN Linkage Node 1 to Node 2 Volume Flow Rate [m3/s] !Hourly
622,1,PAV2_FD_PISO_J1_ABERTA,AFN Linkage Node 2 to Node 1 Volume Flow Rate [m3/s] !Hourly
623,1,PAV2_FD_TETO_ABERTA,AFN Linkage Node 1 to Node 2 Volume Flow Rate [m3/s] !Hourly
624,1,PAV2_FD_TETO_ABERTA,AFN Linkage Node 2 to Node 1 Volume Flow Rate [m3/s] !Hourly
625,1,PAV11_FD_P1_J1_FIXO,AFN Linkage Node 1 to Node 2 Volume Flow Rate [m3/s] !Hourly
626,1,PAV11_FD_P1_J1_FIXO,AFN Linkage Node 2 to Node 1 Volume Flow Rate [m3/s] !Hourly
627,1,PAV10_FD_P1_J1_FIXO,AFN Linkage Node 1 to Node 2 Volume Flow Rate [m3/s] !Hourly
628,1,PAV10_FD_P1_J1_FIXO,AFN Linkage Node 2 to Node 1 Volume Flow Rate [m3/s] !Hourly
629,1,PAV9_FD_P1_J1_FIXO,AFN Linkage Node 1 to Node 2 Volume Flow Rate [m3/s] !Hourly
630,1,PAV9_FD_P1_J1_FIXO,AFN Linkage Node 2 to Node 1 Volume Flow Rate [m3/s] !Hourly
631,1,PAV8_FD_P1_J1_FIXO,AFN Linkage Node 1 to Node 2 Volume Flow Rate [m3/s] !Hourly
632,1,PAV8_FD_P1_J1_FIXO,AFN Linkage Node 2 to Node 1 Volume Flow Rate [m3/s] !Hourly
633,1,PAV7_FD_P1_J1_FIXO,AFN Linkage Node 1 to Node 2 Volume Flow Rate [m3/s] !Hourly
634,1,PAV7_FD_P1_J1_FIXO,AFN Linkage Node 2 to Node 1 Volume Flow Rate [m3/s] !Hourly
635,1,PAV6_FD_P1_J1_FIXO,AFN Linkage Node 1 to Node 2 Volume Flow Rate [m3/s] !Hourly
636,1,PAV6_FD_P1_J1_FIXO,AFN Linkage Node 2 to Node 1 Volume Flow Rate [m3/s] !Hourly
637,1,PAV5_FD_P1_J1_FIXO,AFN Linkage Node 1 to Node 2 Volume Flow Rate [m3/s] !Hourly
638,1,PAV5_FD_P1_J1_FIXO,AFN Linkage Node 2 to Node 1 Volume Flow Rate [m3/s] !Hourly
639,1,PAV4_FD_P1_J1_FIXO,AFN Linkage Node 1 to Node 2 Volume Flow Rate [m3/s] !Hourly
640,1,PAV4_FD_P1_J1_FIXO,AFN Linkage Node 2 to Node 1 Volume Flow Rate [m3/s] !Hourly
641,1,PAV3_FD_P1_J1_FIXO,AFN Linkage Node 1 to Node 2 Volume Flow Rate [m3/s] !Hourly
642,1,PAV3_FD_P1_J1_FIXO,AFN Linkage Node 2 to Node 1 Volume Flow Rate [m3/s] !Hourly
643,1,PAV2_FD_P1_J1_FIXO,AFN Linkage Node 1 to Node 2 Volume Flow Rate [m3/s] !Hourly
644,1,PAV2_FD_P1_J1_FIXO,AFN Linkage Node 2 to Node 1 Volume Flow Rate [m3/s] !Hourly
645,1,PAV11_FD_P3_J2_ABRE,AFN Linkage Node 1 to Node 2 Volume Flow Rate [m3/s] !Hourly
646,1,PAV11_FD_P3_J2_ABRE,AFN Linkage Node 2 to Node 1 Volume Flow Rate [m3/s] !Hourly
647,1,PAV10_FD_P3_J2_ABRE,AFN Linkage Node 1 to Node 2 Volume Flow Rate [m3/s] !Hourly
648,1,PAV10_FD_P3_J2_ABRE,AFN Linkage Node 2 to Node 1 Volume Flow Rate [m3/s] !Hourly
649,1,PAV9_FD_P3_J2_ABRE,AFN Linkage Node 1 to Node 2 Volume Flow Rate [m3/s] !Hourly
650,1,PAV9_FD_P3_J2_ABRE,AFN Linkage Node 2 to Node 1 Volume Flow Rate [m3/s] !Hourly
651,1,PAV8_FD_P3_J2_ABRE,AFN Linkage Node 1 to Node 2 Volume Flow Rate [m3/s] !Hourly
652,1,PAV8_FD_P3_J2_ABRE,AFN Linkage Node 2 to Node 1 Volume Flow Rate [m3/s] !Hourly
653,1,PAV7_FD_P3_J2_ABRE,AFN Linkage Node 1 to Node 2 Volume Flow Rate [m3/s] !Hourly
654,1,PAV7_FD_P3_J2_ABRE,AFN Linkage Node 2 to Node 1 Volume Flow Rate [m3/s] !Hourly
655,1,PAV6_FD_P3_J2_ABRE,AFN Linkage Node 1 to Node 2 Volume Flow Rate [m3/s] !Hourly
656,1,PAV6_FD_P3_J2_ABRE,AFN Linkage Node 2 to Node 1 Volume Flow Rate [m3/s] !Hourly
657,1,PAV5_FD_P3_J2_ABRE,AFN Linkage Node 1 to Node 2 Volume Flow Rate [m3/s] !Hourly
658,1,PAV5_FD_P3_J2_ABRE,AFN Linkage Node 2 to Node 1 Volume Flow Rate [m3/s] !Hourly
659,1,PAV4_FD_P3_J2_ABRE,AFN Linkage Node 1 to Node 2 Volume Flow Rate [m3/s] !Hourly
660,1,PAV4_FD_P3_J2_ABRE,AFN Linkage Node 2 to Node 1 Volume Flow Rate [m3/s] !Hourly
661,1,PAV3_FD_P3_J2_ABRE,AFN Linkage Node 1 to Node 2 Volume Flow Rate [m3/s] !Hourly
662,1,PAV3_FD_P3_J2_ABRE,AFN Linkage Node 2 to Node 1 Volume Flow Rate [m3/s] !Hourly
663,1,PAV2_FD_P3_J2_ABRE,AFN Linkage Node 1 to Node 2 Volume Flow Rate [m3/s] !Hourly
664,1,PAV2_FD_P3_J2_ABRE,AFN Linkage Node 2 to Node 1 Volume Flow Rate [m3/s] !Hourly
665,1,PAV1_Z1_P3_J1_VENEZIANA,AFN Linkage Node 1 to Node 2 Volume Flow Rate [m3/s] !Hourly
666,1,PAV1_Z1_P3_J1_VENEZIANA,AFN Linkage Node 2 to Node 1 Volume Flow Rate [m3/s] !Hourly
667,1,PAV1_Z1_P3_J1_VENEZIANA,AFN Linkage Node 1 to Node 2 Volume Flow Rate [m3/s] !Hourly
668,1,PAV1_Z1_P3_J1_VENEZIANA,AFN Linkage Node 2 to Node 1 Volume Flow Rate [m3/s] !Hourly
669,1,PAV2_Z1_P3_J1_VENEZIANA,AFN Linkage Node 1 to Node 2 Volume Flow Rate [m3/s] !Hourly
670,1,PAV2_Z1_P3_J1_VENEZIANA,AFN Linkage Node 2 to Node 1 Volume Flow Rate [m3/s] !Hourly
671,1,PAV3_Z1_P3_J1_VENEZIANA,AFN Linkage Node 1 to Node 2 Volume Flow Rate [m3/s] !Hourly
672,1,PAV3_Z1_P3_J1_VENEZIANA,AFN Linkage Node 2 to Node 1 Volume Flow Rate [m3/s] !Hourly
673,1,PAV4_Z1_P3_J1_VENEZIANA,AFN Linkage Node 1 to Node 2 Volume Flow Rate [m3/s] !Hourly
674,1,PAV4_Z1_P3_J1_VENEZIANA,AFN Linkage Node 2 to Node 1 Volume Flow Rate [m3/s] !Hourly
675,1,PAV5_Z1_P3_J1_VENEZIANA,AFN Linkage Node 1 to Node 2 Volume Flow Rate [m3/s] !Hourly
676,1,PAV5_Z1_P3_J1_VENEZIANA,AFN Linkage Node 2 to Node 1 Volume Flow Rate [m3/s] !Hourly
677,1,PAV6_Z1_P3_J1_VENEZIANA,AFN Linkage Node 1 to Node 2 Volume Flow Rate [m3/s] !Hourly
678,1,PAV6_Z1_P3_J1_VENEZIANA,AFN Linkage Node 2 to Node 1 Volume Flow Rate [m3/s] !Hourly
679,1,PAV7_Z1_P3_J1_VENEZIANA,AFN Linkage Node 1 to Node 2 Volume Flow Rate [m3/s] !Hourly
680,1,PAV7_Z1_P3_J1_VENEZIANA,AFN Linkage Node 2 to Node 1 Volume Flow Rate [m3/s] !Hourly
681,1,PAV8_Z1_P3_J1_VENEZIANA,AFN Linkage Node 1 to Node 2 Volume Flow Rate [m3/s] !Hourly
682,1,PAV8_Z1_P3_J1_VENEZIANA,AFN Linkage Node 2 to Node 1 Volume Flow Rate [m3/s] !Hourly
683,1,PAV9_Z1_P3_J1_VENEZIANA,AFN Linkage Node 1 to Node 2 Volume Flow Rate [m3/s] !Hourly
684,1,PAV9_Z1_P3_J1_VENEZIANA,AFN Linkage Node 2 to Node 1 Volume Flow Rate [m3/s] !Hourly
685,1,PAV10_Z1_P3_J1_VENEZIANA,AFN Linkage Node 1 to Node 2 Volume Flow Rate [m3/s] !Hourly
686,1,PAV10_Z1_P3_J1_VENEZIANA,AFN Linkage Node 2 to Node 1 Volume Flow Rate [m3/s] !Hourly
687,1,PAV11_Z1_P3_J1_VENEZIANA,AFN Linkage Node 1 to Node 2 Volume Flow Rate [m3/s] !Hourly
688,1,PAV11_Z1_P3_J1_VENEZIANA,AFN Linkage Node 2 to Node 1 Volume Flow Rate [m3/s] !Hourly
689,1,PAV11_Z1_P1_J2_ABRE,AFN Linkage Node 1 to Node 2 Volume Flow Rate [m3/s] !Hourly
690,1,PAV11_Z1_P1_J2_ABRE,AFN Linkage Node 2 to Node 1 Volume Flow Rate [m3/s] !Hourly
691,1,PAV10_Z1_P1_J2_ABRE,AFN Linkage Node 1 to Node 2 Volume Flow Rate [m3/s] !Hourly
692,1,PAV10_Z1_P1_J2_ABRE,AFN Linkage Node 2 to Node 1 Volume Flow Rate [m3/s] !Hourly
693,1,PAV9_Z1_P1_J2_ABRE,AFN Linkage Node 1 to Node 2 Volume Flow Rate [m3/s] !Hourly
694,1,PAV9_Z1_P1_J2_ABRE,AFN Linkage Node 2 to Node 1 Volume Flow Rate [m3/s] !Hourly
695,1,PAV8_Z1_P1_J2_ABRE,AFN Linkage Node 1 to Node 2 Volume Flow Rate [m3/s] !Hourly
696,1,PAV8_Z1_P1_J2_ABRE,AFN Linkage Node 2 to Node 1 Volume Flow Rate [m3/s] !Hourly
697,1,PAV7_Z1_P1_J2_ABRE,AFN Linkage Node 1 to Node 2 Volume Flow Rate [m3/s] !Hourly
698,1,PAV7_Z1_P1_J2_ABRE,AFN Linkage Node 2 to Node 1 Volume Flow Rate [m3/s] !Hourly
699,1,PAV6_Z1_P1_J2_ABRE,AFN Linkage Node 1 to Node 2 Volume Flow Rate [m3/s] !Hourly
700,1,PAV6_Z1_P1_J2_ABRE,AFN Linkage Node 2 to Node 1 Volume Flow Rate [m3/s] !Hourly
701,1,PAV5_Z1_P1_J2_ABRE,AFN Linkage Node 1 to Node 2 Volume Flow Rate [m3/s] !Hourly
702,1,PAV5_Z1_P1_J2_ABRE,AFN Linkage Node 2 to Node 1 Volume Flow Rate [m3/s] !Hourly
703,1,PAV4_Z1_P1_J2_ABRE,AFN Linkage Node 1 to Node 2 Volume Flow Rate [m3/s] !Hourly
704,1,PAV4_Z1_P1_J2_ABRE,AFN Linkage Node 2 to Node 1 Volume Flow Rate [m3/s] !Hourly
705,1,PAV3_Z1_P1_J2_ABRE,AFN Linkage Node 1 to Node 2 Volume Flow Rate [m3/s] !Hourly
706,1,PAV3_Z1_P1_J2_ABRE,AFN Linkage Node 2 to Node 1 Volume Flow Rate [m3/s] !Hourly
707,1,PAV2_Z1_P1_J2_ABRE,AFN Linkage Node 1 to Node 2 Volume Flow Rate [m3/s] !Hourly
708,1,PAV2_Z1_P1_J2_ABRE,AFN Linkage Node 2 to Node 1 Volume Flow Rate [m3/s] !Hourly
709,1,PAV1_Z1_P1_J2_ABRE,AFN Linkage Node 1 to Node 2 Volume Flow Rate [m3/s] !Hourly
710,1,PAV1_Z1_P1_J2_ABRE,AFN Linkage Node 2 to Node 1 Volume Flow Rate [m3/s] !Hourly
711,1,PAV12_FD_PISO_J1_ABERTA,AFN Linkage Node 1 to Node 2 Volume Flow Rate [m3/s] !Hourly
712,1,PAV12_FD_PISO_J1_ABERTA,AFN Linkage Node 2 to Node 1 Volume Flow Rate [m3/s] !Hourly
713,1,PAV12_FD_TETO_ABERTA_FINAL,AFN Linkage Node 1 to Node 2 Volume Flow Rate [m3/s] !Hourly
714,1,PAV12_FD_TETO_ABERTA_FINAL,AFN Linkage Node 2 to Node 1 Volume Flow Rate [m3/s] !Hourly
End of Data Dictionary
1,ANO COMPLETO, -22.86, -43.41,  -3.00,  45.00
2,1, 1, 1, 0, 1, 0.00,60.00,Sunday
497,24.875765193982408
498,24.309886951073648
499,24.25610505466364
500,26.343551370496198
501,27.671881465043545
502,26.43856717063669
503,27.402658229094738
504,28.874846959469534
505,27.522083232841287
506,27.957816649122646
507,29.530624783173747
508,28.101503354956824
509,28.281141458868889
510,30.03717177756177
511,28.455642724053488
512,28.478154474639358
513,30.47634139010945
514,28.684727331663806
515,28.64033318295263
516,30.94931342594703
517,28.883633011573925
518,28.76912722711066
519,31.28071020398519
520,28.61745014597253
521,25.056707553307189
522,31.27422031304936
523,28.818740510554269
524,28.854610020332385
525,31.0431101594844
526,27.38285916926326
527,28.485378778496608
528,29.436946174582677
529,28.058696322289479
530,27.198087172061436
531,27.487506927544513
532,27.726851265057055
533,27.893169231681069
534,27.986504396872318
535,28.161031759891416
536,28.253086844311374
537,28.272375592143637
538,28.276940381283809
539,28.036241713860347
540,25.554022142553455
541,24.806868743476817
542,24.290045917312808
543,24.23643898468461
544,26.330660679074716
545,26.02296519206853
546,26.425513871188035
547,27.39622512939296
548,26.615993143189809
549,27.515215956399016
550,27.95586582569246
551,27.120347163964394
552,28.098532588941663
553,28.287426398673238
554,27.690519059385566
555,28.459963294417219
556,28.489173506437465
557,28.360487983203695
558,28.694525782734585
559,28.654515058876077
560,29.263169401932829
561,28.89308600807408
562,28.785204833213073
563,29.962985209797723
564,28.51088098441916
565,25.027811978551467
566,30.04902252222031
567,28.831326525403897
568,28.865663413326926
569,29.848849879633659
570,27.371392362220008
571,28.38274593764351
572,28.777515608095084
573,27.99160720062441
574,26.05645518994226
575,26.301522140222063
576,26.50217502167976
577,26.666554365883156
578,26.82090478804496
579,26.979301269542835
580,27.12368517856279
581,27.250269873178764
582,27.34155984732566
583,27.363671550054034
584,27.239911964814949
585,0.0
586,6.466393214278778
587,5.427001625168619
588,0.02191375041965928
589,0.0
590,6.703820305069862
591,6.264973993971025
592,0.0
593,0.0
594,6.885995526840815
595,6.654901895612199
596,0.0
597,0.0
598,6.9099374117631309
599,6.874796424143778
600,0.0
601,0.0
602,6.75146253786959
603,6.9380860751860828
604,0.0
605,0.0
606,6.237891852588926
607,6.781232556422783
608,0.0
609,0.0
610,5.305612702814228
611,6.282405000982663
612,0.0
613,0.0
614,3.9002711090431747
615,5.37698858739514
616,0.0
617,0.06066413676022464
618,1.9947056851643364
619,4.1143778167128819
620,0.0
621,0.0
622,0.13436020499565549
623,2.570752348412006
624,0.0
625,0.053092469515609457
626,0.006972174263249199
627,0.04680230438043332
628,0.005758065185173506
629,0.0461035350187527
630,0.0
631,0.02500374032591425
632,0.0076396822525237029
633,0.021364729014348429
634,0.009202073861421377
635,0.0122380752378743
636,0.018528573762545798
637,0.001140265586726297
638,0.0380878130755492
639,0.00035074682304477803
640,0.04393687714697574
641,0.0
642,0.05748785893191002
643,0.0
644,0.07044084080256803
645,0.8618326594565722
646,0.013870301229809505
647,0.6550798216101856
648,0.22103104413796519
649,0.5818155378101463
650,0.31814187556112996
651,0.4681899649889252
652,0.4296829012801026
653,0.29137647519728057
654,0.5320273804491555
655,0.13416631309243397
656,0.7546855011896824
657,0.03562970351370986
658,1.0426793888205422
659,0.0
660,1.361194846866528
661,0.0
662,1.6743886002834599
663,0.0
664,1.9315267691912164
665,0.003943617071890829
666,0.00012897732863098227
667,0.003943617071890829
668,0.00012897732863098227
669,0.0
670,4.300065606331027
671,0.0
672,3.452383642726357
673,0.0007330866865167539
674,2.6251196164801198
675,0.048824374076252879
676,1.8495881402578889
677,0.12265750262471942
678,1.1287721492763317
679,0.17802565995215703
680,0.5055184125237324
681,0.22529193577662685
682,0.1554211116572948
683,0.3889122621106505
684,0.032941082532141157
685,0.6021694826422454
686,0.01584725859952125
687,1.2774542916954455
688,0.0028826927476364647
689,0.007941145465801348
690,0.4345281880667728
691,0.07306846522767315
692,0.2253318852655539
693,0.09579282044362064
694,0.18808396694755623
695,0.13281612206464725
696,0.16417865196289703
697,0.2275886431671538
698,0.14074955777773449
699,0.4717959738759044
700,0.0862231386098884
701,0.8224338424824348
702,0.028752288362897228
703,1.2631430894052929
704,0.0
705,1.7779307231866948
706,0.0
707,2.368460225815241
708,0.0
709,0.0
710,0.007629026578255038
711,0.0
712,6.005666424775399
713,11.410245277509234
714,0.0
2,1, 1, 1, 0, 2, 0.00,60.00,Sunday
497,24.80032865509365
498,24.307311934612135
499,24.255222776247896
500,26.346017340703115
501,27.582296220460547
502,26.43932544081539
503,27.40663892570002
504,28.78739343688706
505,27.524368839552666
506,27.96291585499409
507,29.449746504993056
508,28.104772941229528
509,28.28694949640203
510,29.967125212257355
511,28.459269748697954
512,28.4844964512036
513,30.422842264322204
514,28.688771744391344
515,28.64677231160847
516,30.8794662006611
517,28.879038890045547
518,28.77522445358048
519,31.18759495185424
520,28.485778047487377
521,25.054064778240404
522,31.181260987432635
523,28.824816322342767
524,28.85195437763409
525,30.905993744702419
526,27.374954463840614
527,28.353717233317214
528,29.148161347918636
529,27.92553257612776
530,27.169291696184929
531,27.530192596220045
532,27.768176621942844
533,27.88067924975086
534,28.015183188553669
535,28.164946833823234
536,28.19147079131496
537,28.236611176121089
538,28.1805355469206
539,27.898896520897279
540,25.334062147586413
541,24.84234060107937
542,24.28723857687037
543,24.235393880920716
544,26.33325996862452
545,26.126339679598919
546,26.426416317707085
547,27.400529870500937
548,26.675041269686877
549,27.517893807755816
550,27.961739562434969
551,27.20890923287871
552,28.10280158788953
553,28.295458326244387
554,27.885236088824646
555,28.466263138682878
556,28.497137962832114
557,28.72093354139477
558,28.699840712862558
559,28.66198081461418
560,29.55351947213242
561,28.89357768387207
562,28.7922572128614
563,30.01878694895349
564,28.36017285300784
565,25.02577566225369
566,29.96682524277776
567,28.838413951738006
568,28.867333080427483
569,29.736864783055287
570,27.36705251998516
571,28.231595943657486
572,28.5884280395023
573,27.82842410146985
574,26.29609279708535
575,26.609139796956513
576,26.869490117668204
577,27.104626935622418
578,27.29833922662614
579,27.444022871604138
580,27.545773253137793
581,27.61879996189046
582,27.66386588925457
583,27.68001546004128
584,27.591428746604764
585,0.0
586,8.45923708012545
587,7.23779522739688
588,0.0
589,0.0
590,8.919901874666819
591,8.32358535880794
592,0.0
593,0.0
594,9.233194828126708
595,8.835967913159133
596,0.0
597,0.0
598,9.390844032575912
599,9.182694011069213
600,0.0
601,0.0
602,9.210341184347288
603,9.358910553475474
604,0.0
605,0.0
606,8.57205173916296
607,9.216241146721183
608,0.0
609,0.0
610,7.359959950407411
611,8.614363759852895
612,0.0
613,0.0
614,5.528999954364352
615,7.465142580679335
616,0.0
617,0.0
618,2.977666381878852
619,5.730266105885685
620,0.0
621,0.0
622,0.20617376441963265
623,3.4314362562531817
624,0.0
625,0.06724933623599003
626,0.0
627,0.06041507089261806
628,0.000005477810463651873
629,0.05957608408664442
630,0.0
631,0.03561752420901181
632,0.004247578417485939
633,0.02743807407600644
634,0.0062188009482070818
635,0.008944668323635866
636,0.023112181850407838
637,0.0
638,0.055445430310646619
639,0.0
640,0.06897341971704373
641,0.0
642,0.08613512122953508
643,0.0
644,0.10299660904222345
645,1.2121545554503873
646,0.0
647,0.7647355232978116
648,0.0905622547138387
649,0.642920072779008
650,0.19139289151993689
651,0.522249874405381
652,0.2960146494945448
653,0.2569791091477081
654,0.5119562597789693
655,0.045545255127340349
656,0.8558996227020068
657,0.0
658,1.3697876387884174
659,0.0
660,1.8988357982150508
661,0.0
662,2.4059620942777708
663,0.0
664,2.8581806062476464
665,0.004094030640802939
666,0.00004972899064679446
667,0.004094030640802939
668,0.00004972899064679446
669,0.0
670,6.100017148338406
671,0.0
672,4.764067443839571
673,0.0
674,3.496891788732871
675,0.0
676,2.305887408969092
677,0.0075218292418415279
678,1.2335317649969005
679,0.08055192632694537
680,0.42494462369631266
681,0.3354987952407611
682,0.03300003553521772
683,0.6129134413816433
684,0.012463341656426217
685,0.9151935712408781
686,0.0025449160864059936
687,1.8621617035697025
688,0.0
689,0.0
690,0.6499747316787082
691,0.03203179909949629
692,0.27049132867676659
693,0.06129052127508273
694,0.21020303238961203
695,0.09394925568841
696,0.17020823961979748
697,0.19389495790247236
698,0.10448291853898341
699,0.4410811175711386
700,0.025447590090031198
701,0.9360589045436614
702,0.0
703,1.5979950971582196
704,0.0
705,2.3580223948129119
706,0.0
707,3.241730337018815
708,0.0
709,0.0
710,0.008088335017783466
711,0.0
712,7.6156436194262799
713,14.85285872815811
714,0.0
2,1, 1, 1, 0, 3, 0.00,60.00,Sunday
497,24.6976183674834
498,24.302117283848088
499,24.251599948482168
500,26.3455194754854
501,27.378741210896334
502,26.437198651266724
503,27.407718097963185
504,28.56846480295718
505,27.523830910696849
506,27.965111159338364
507,29.229051482757688
508,28.105218334577058
509,28.289841808989605
510,29.74725197275681
511,28.460077356454759
512,28.488010803615823
513,30.236356848865318
514,28.689921721023678
515,28.65045731178557
516,30.74321809756768
517,28.86972189657779
518,28.778605248046075
519,31.0753369978807
520,28.3623153198623
521,25.04879770112822
522,31.073154209099959
523,28.82807960827485
524,28.844530769977156
525,30.747365968086198
526,27.362573279149897
527,28.230080642528816
528,28.857010745456525
529,27.800748915240246
530,26.458971828147765
531,26.873964004486138
532,27.124284496044028
533,27.23989146359203
534,27.43219968239826
535,27.617864732390215
536,27.650440089150825
537,27.740453631616906
538,27.661169797737434
539,27.35908909769726
540,24.78297926497623
541,24.621812654142987
542,24.281038385011727
543,24.231002207734965
544,26.332892695520646
545,25.07890681983062
546,26.424253796157449
547,27.4023045124801
548,25.58019692519611
549,27.517969620356469
550,27.96565222037802
551,26.070933208526485
552,28.1051256795332
553,28.301329246100847
554,26.6283112315537
555,28.470171829261678
556,28.502268340535826
557,27.54203490968426
558,28.70198947916228
559,28.66699882118449
560,28.95510602182343
561,28.88945921314686
562,28.796992913697279
563,29.93402839231386
564,28.212717123848237
565,25.020681795210267
566,30.017787086423298
567,28.843043146155425
568,28.861407661265859
569,29.7447428640248
570,27.357461366570595
571,28.083554354731377
572,28.368939258180235
573,27.67416348740105
574,25.270136909377134
575,25.594520221720573
576,25.88883659619677
577,26.170175596771583
578,26.45261168891771
579,26.71111559833632
580,26.94919956622786
581,27.152552904858355
582,27.316304645154447
583,27.428780486756499
584,27.454849884241385
585,0.0
586,11.845752098606822
587,10.906262512429655
588,0.0
589,0.0
590,12.135773253150463
591,11.818729929414064
592,0.0
593,0.0
594,12.284175893233268
595,12.147990818666344
596,0.0
597,0.0
598,12.209247433439686
599,12.329784870977955
600,0.0
601,0.0
602,11.835438688975034
603,12.285533179132444
604,0.0
605,0.0
606,10.80777799455551
607,11.934307207119085
608,0.0
609,0.0
610,9.087456480501074
611,10.937997545779624
612,0.0
613,0.0
614,6.756519706022186
615,9.245032725619792
616,0.0
617,0.0
618,3.6047704109818108
619,6.979730985400626
620,0.0
621,0.0
622,0.25448055446043196
623,4.084775857489453
624,0.0
625,0.09560547068972801
626,0.0
627,0.07811952984266206
628,0.0
629,0.06370766536855226
630,0.0
631,0.026574264163067977
632,0.013370652753499885
633,0.01077415037376038
634,0.02748893363685893
635,0.0
636,0.05536681932177911
637,0.0
638,0.08009434883847562
639,0.0
640,0.09350435530929546
641,0.0
642,0.11028065531774777
643,0.0
644,0.12753834977012094
645,1.2062985899402715
646,0.0
647,0.6376470844447519
648,0.1883434555283093
649,0.5414474992834929
650,0.3152911788210639
651,0.37902515521390808
652,0.4921374654975808
653,0.13923096033128402
654,0.6878359814858642
655,0.0
656,1.2991939137498754
657,0.0
658,1.9567383154137883
659,0.0
660,2.451025418474364
661,0.0
662,3.024937185947961
663,0.0
664,3.4808770527369279
665,0.31914451780382765
666,0.4298537111973502
667,0.31914451780382765
668,0.4298537111973502
669,0.0
670,7.307627285130345
671,0.0
672,5.936473276860677
673,0.0
674,4.502774954123393
675,0.0
676,3.333223708356655
677,0.0
678,1.968621691653354
679,0.0
680,0.7083260286950641
681,0.008832959548588529
682,0.14121683071959033
683,0.2774880692726605
684,0.010995148290732714
685,0.5413321069219722
686,0.0001627743125955049
687,1.6605165196729635
688,0.0
689,0.0
690,0.45418891451167217
691,0.03501282225405484
692,0.12686944387310049
693,0.05295864427399494
694,0.09329059440570754
695,0.08550594816144119